[
    {
        "atomic_number": 1,
        "element_name": "Hydrogen",
        "symbol": "H",
        "atomic_mass": 1.008,
        "period": 1,
        "group": 1,
        "block": "s",
        "atomic_radius": 120,
        "electronegativity": 2.2,
        "melting_point": 13.81,
        "category": "nonmetal"
    },
    {
        "atomic_number": 2,
        "element_name": "Helium",
        "symbol": "He",
        "atomic_mass": 4.003,
        "period": 1,
        "group": 18,
        "block": "s",
        "atomic_radius": 140,
        "electronegativity": 0,
        "melting_point": 0.95,
        "category": "noble gas"
    },
    {
        "atomic_number": 3,
        "element_name": "Lithium",
        "symbol": "Li",
        "atomic_mass": 6.94,
        "period": 2,
        "group": 1,
        "block": "s",
        "atomic_radius": 182,
        "electronegativity": 0.98,
        "melting_point": 453.65,
        "category": "alkali metal"
    },
    {
        "atomic_number": 4,
        "element_name": "Beryllium",
        "symbol": "Be",
        "atomic_mass": 9.012,
        "period": 2,
        "group": 2,
        "block": "s",
        "atomic_radius": 153,
        "electronegativity": 1.57,
        "melting_point": 1560,
        "category": "alkaline earth metal"
    },
    {
        "atomic_number": 5,
        "element_name": "Boron",
        "symbol": "B",
        "atomic_mass": 10.81,
        "period": 2,
        "group": 13,
        "block": "p",
        "atomic_radius": 192,
        "electronegativity": 2.04,
        "melting_point": 2349,
        "category": "metalloid"
    },
    {
        "atomic_number": 6,
        "element_name": "Carbon",
        "symbol": "C",
        "atomic_mass": 12.011,
        "period": 2,
        "group": 14,
        "block": "p",
        "atomic_radius": 170,
        "electronegativity": 2.55,
        "melting_point": 3823,
        "category": "nonmetal"
    },
    {
        "atomic_number": 7,
        "element_name": "Nitrogen",
        "symbol": "N",
        "atomic_mass": 14.007,
        "period": 2,
        "group": 15,
        "block": "p",
        "atomic_radius": 155,
        "electronegativity": 3.04,
        "melting_point": 63.15,
        "category": "nonmetal"
    },
    {
        "atomic_number": 8,
        "element_name": "Oxygen",
        "symbol": "O",
        "atomic_mass": 15.999,
        "period": 2,
        "group": 16,
        "block": "p",
        "atomic_radius": 152,
        "electronegativity": 3.44,
        "melting_point": 54.36,
        "category": "nonmetal"
    },
    {
        "atomic_number": 9,
        "element_name": "Fluorine",
        "symbol": "F",
        "atomic_mass": 18.998,
        "period": 2,
        "group": 17,
        "block": "p",
        "atomic_radius": 147,
        "electronegativity": 3.98,
        "melting_point": 53.48,
        "category": "halogen"
    },
    {
        "atomic_number": 10,
        "element_name": "Neon",
        "symbol": "Ne",
        "atomic_mass": 20.18,
        "period": 2,
        "group": 18,
        "block": "p",
        "atomic_radius": 154,
        "electronegativity": 0,
        "melting_point": 24.56,
        "category": "noble gas"
    },
    {
        "atomic_number": 11,
        "element_name": "Sodium",
        "symbol": "Na",
        "atomic_mass": 22.990,
        "period": 3,
        "group": 1,
        "block": "s",
        "atomic_radius": 227,
        "electronegativity": 0.93,
        "melting_point": 370.87,
        "category": "alkali metal"
    },
    {
        "atomic_number": 12,
        "element_name": "Magnesium",
        "symbol": "Mg",
        "atomic_mass": 24.305,
        "period": 3,
        "group": 2,
        "block": "s",
        "atomic_radius": 173,
        "electronegativity": 1.31,
        "melting_point": 923,
        "category": "alkaline earth metal"
    },
    {
        "atomic_number": 13,
        "element_name": "Aluminum",
        "symbol": "Al",
        "atomic_mass": 26.982,
        "period": 3,
        "group": 13,
        "block": "p",
        "atomic_radius": 184,
        "electronegativity": 1.61,
        "melting_point": 933.47,
        "category": "post-transition metal"
    },
    {
        "atomic_number": 14,
        "element_name": "Silicon",
        "symbol": "Si",
        "atomic_mass": 28.085,
        "period": 3,
        "group": 14,
        "block": "p",
        "atomic_radius": 210,
        "electronegativity": 1.9,
        "melting_point": 1687,
        "category": "metalloid"
    },
    {
        "atomic_number": 15,
        "element_name": "Phosphorus",
        "symbol": "P",
        "atomic_mass": 30.974,
        "period": 3,
        "group": 15,
        "block": "p",
        "atomic_radius": 180,
        "electronegativity": 2.19,
        "melting_point": 317.3,
        "category": "nonmetal"
    },
    {
        "atomic_number": 16,
        "element_name": "Sulfur",
        "symbol": "S",
        "atomic_mass": 32.06,
        "period": 3,
        "group": 16,
        "block": "p",
        "atomic_radius": 180,
        "electronegativity": 2.58,
        "melting_point": 388.36,
        "category": "nonmetal"
    },
    {
        "atomic_number": 17,
        "element_name": "Chlorine",
        "symbol": "Cl",
        "atomic_mass": 35.45,
        "period": 3,
        "group": 17,
        "block": "p",
        "atomic_radius": 175,
        "electronegativity": 3.16,
        "melting_point": 171.6,
        "category": "halogen"
    },
    {
        "atomic_number": 18,
        "element_name": "Argon",
        "symbol": "Ar",
        "atomic_mass": 39.948,
        "period": 3,
        "group": 18,
        "block": "p",
        "atomic_radius": 188,
        "electronegativity": 0,
        "melting_point": 83.8,
        "category": "noble gas"
    },
    {
        "atomic_number": 19,
        "element_name": "Potassium",
        "symbol": "K",
        "atomic_mass": 39.098,
        "period": 4,
        "group": 1,
        "block": "s",
        "atomic_radius": 275,
        "electronegativity": 0.82,
        "melting_point": 336.53,
        "category": "alkali metal"
    },
    {
        "atomic_number": 20,
        "element_name": "Calcium",
        "symbol": "Ca",
        "atomic_mass": 40.078,
        "period": 4,
        "group": 2,
        "block": "s",
        "atomic_radius": 231,
        "electronegativity": 1.0,
        "melting_point": 1115,
        "category": "alkaline earth metal"
    },
    {
        "atomic_number": 21,
        "element_name": "Scandium",
        "symbol": "Sc",
        "atomic_mass": 44.956,
        "period": 4,
        "group": 3,
        "block": "d",
        "atomic_radius": 160,
        "electronegativity": 1.36,
        "melting_point": 1814,
        "category": "transition metal"
    },
    {
        "atomic_number": 22,
        "element_name": "Titanium",
        "symbol": "Ti",
        "atomic_mass": 47.867,
        "period": 4,
        "group": 4,
        "block": "d",
        "atomic_radius": 140,
        "electronegativity": 1.54,
        "melting_point": 1941,
        "category": "transition metal"
    },
    {
        "atomic_number": 23,
        "element_name": "Vanadium",
        "symbol": "V",
        "atomic_mass": 50.942,
        "period": 4,
        "group": 5,
        "block": "d",
        "atomic_radius": 135,
        "electronegativity": 1.63,
        "melting_point": 2183,
        "category": "transition metal"
    },
    {
        "atomic_number": 24,
        "element_name": "Chromium",
        "symbol": "Cr",
        "atomic_mass": 51.996,
        "period": 4,
        "group": 6,
        "block": "d",
        "atomic_radius": 140,
        "electronegativity": 1.66,
        "melting_point": 2180,
        "category": "transition metal"
    },
    {
        "atomic_number": 25,
        "element_name": "Manganese",
        "symbol": "Mn",
        "atomic_mass": 54.938,
        "period": 4,
        "group": 7,
        "block": "d",
        "atomic_radius": 140,
        "electronegativity": 1.55,
        "melting_point": 1519,
        "category": "transition metal"
    },
    {
        "atomic_number": 26,
        "element_name": "Iron",
        "symbol": "Fe",
        "atomic_mass": 55.845,
        "period": 4,
        "group": 8,
        "block": "d",
        "atomic_radius": 140,
        "electronegativity": 1.83,
        "melting_point": 1811,
        "category": "transition metal"
    },
    {
        "atomic_number": 27,
        "element_name": "Cobalt",
        "symbol": "Co",
        "atomic_mass": 58.933,
        "period": 4,
        "group": 9,
        "block": "d",
        "atomic_radius": 135,
        "electronegativity": 1.88,
        "melting_point": 1768,
        "category": "transition metal"
    },
    {
        "atomic_number": 28,
        "element_name": "Nickel",
        "symbol": "Ni",
        "atomic_mass": 58.693,
        "period": 4,
        "group": 10,
        "block": "d",
        "atomic_radius": 135,
        "electronegativity": 1.91,
        "melting_point": 1728,
        "category": "transition metal"
    },
    {
        "atomic_number": 29,
        "element_name": "Copper",
        "symbol": "Cu",
        "atomic_mass": 63.546,
        "period": 4,
        "group": 11,
        "block": "d",
        "atomic_radius": 135,
        "electronegativity": 1.90,
        "melting_point": 1358,
        "category": "transition metal"
    },
    {
        "atomic_number": 30,
        "element_name": "Zinc",
        "symbol": "Zn",
        "atomic_mass": 65.38,
        "period": 4,
        "group": 12,
        "block": "d",
        "atomic_radius": 135,
        "electronegativity": 1.65,
        "melting_point": 693,
        "category": "transition metal"
    },
    {
        "atomic_number": 31,
        "element_name": "Gallium",
        "symbol": "Ga",
        "atomic_mass": 69.723,
        "period": 4,
        "group": 13,
        "block": "p",
        "atomic_radius": 135,
        "electronegativity": 1.81,
        "melting_point": 302.914,
        "category": "post-transition metal"
    },
    {
        "atomic_number": 32,
        "element_name": "Germanium",
        "symbol": "Ge",
        "atomic_mass": 72.63,
        "period": 4,
        "group": 14,
        "block": "p",
        "atomic_radius": 125,
        "electronegativity": 2.01,
        "melting_point": 1211.4,
        "category": "metalloid"
    },
    {
        "atomic_number": 33,
        "element_name": "Arsenic",
        "symbol": "As",
        "atomic_mass": 74.922,
        "period": 4,
        "group": 15,
        "block": "p",
        "atomic_radius": 115,
        "electronegativity": 2.18,
        "melting_point": 1090,
        "category": "metalloid"
    },
    {
        "atomic_number": 34,
        "element_name": "Selenium",
        "symbol": "Se",
        "atomic_mass": 78.971,
        "period": 4,
        "group": 16,
        "block": "p",
        "atomic_radius": 120,
        "electronegativity": 2.55,
        "melting_point": 494,
        "category": "nonmetal"
    },
    {
        "atomic_number": 35,
        "element_name": "Bromine",
        "symbol": "Br",
        "atomic_mass": 79.904,
        "period": 4,
        "group": 17,
        "block": "p",
        "atomic_radius": 120,
        "electronegativity": 2.96,
        "melting_point": 265.8,
        "category": "halogen"
    },
    {
        "atomic_number": 36,
        "element_name": "Krypton",
        "symbol": "Kr",
        "atomic_mass": 83.798,
        "period": 4,
        "group": 18,
        "block": "p",
        "atomic_radius": 88,
        "electronegativity": 3.0,
        "melting_point": 115.78,
        "category": "noble gas"
    },
    {
        "atomic_number": 37,
        "element_name": "Rubidium",
        "symbol": "Rb",
        "atomic_mass": 85.468,
        "period": 5,
        "group": 1,
        "block": "s",
        "atomic_radius": 265,
        "electronegativity": 0.82,
        "melting_point": 312.46,
        "category": "alkali metal"
    },
    {
        "atomic_number": 38,
        "element_name": "Strontium",
        "symbol": "Sr",
        "atomic_mass": 87.62,
        "period": 5,
        "group": 2,
        "block": "s",
        "atomic_radius": 219,
        "electronegativity": 0.95,
        "melting_point": 1050,
        "category": "alkaline earth metal"
    },
    {
        "atomic_number": 39,
        "element_name": "Yttrium",
        "symbol": "Y",
        "atomic_mass": 88.906,
        "period": 5,
        "group": 3,
        "block": "d",
        "atomic_radius": 212,
        "electronegativity": 1.22,
        "melting_point": 1799,
        "category": "transition metal"
    },
    {
        "atomic_number": 40,
        "element_name": "Zirconium",
        "symbol": "Zr",
        "atomic_mass": 91.224,
        "period": 5,
        "group": 4,
        "block": "d",
        "atomic_radius": 206,
        "electronegativity": 1.33,
        "melting_point": 2128,
        "category": "transition metal"
    },
    {
        "atomic_number": 41,
        "element_name": "Niobium",
        "symbol": "Nb",
        "atomic_mass": 92.906,
        "period": 5,
        "group": 5,
        "block": "d",
        "atomic_radius": 198,
        "electronegativity": 1.6,
        "melting_point": 2750,
        "category": "transition metal"
    },
    {
        "atomic_number": 42,
        "element_name": "Molybdenum",
        "symbol": "Mo",
        "atomic_mass": 95.95,
        "period": 5,
        "group": 6,
        "block": "d",
        "atomic_radius": 190,
        "electronegativity": 2.16,
        "melting_point": 2896,
        "category": "transition metal"
    },
    {
        "atomic_number": 43,
        "element_name": "Technetium",
        "symbol": "Tc",
        "atomic_mass": 98,
        "period": 5,
        "group": 7,
        "block": "d",
        "atomic_radius": 183,
        "electronegativity": 1.9,
        "melting_point": 2430,
        "category": "transition metal"
    },
    {
        "atomic_number": 44,
        "element_name": "Ruthenium",
        "symbol": "Ru",
        "atomic_mass": 101.07,
        "period": 5,
        "group": 8,
        "block": "d",
        "atomic_radius": 178,
        "electronegativity": 2.2,
        "melting_point": 2607,
        "category": "transition metal"
    },
    {
        "atomic_number": 45,
        "element_name": "Rhodium",
        "symbol": "Rh",
        "atomic_mass": 102.906,
        "period": 5,
        "group": 9,
        "block": "d",
        "atomic_radius": 173,
        "electronegativity": 2.28,
        "melting_point": 2237,
        "category": "transition metal"
    },
    {
        "atomic_number": 46,
        "element_name": "Palladium",
        "symbol": "Pd",
        "atomic_mass": 106.42,
        "period": 5,
        "group": 10,
        "block": "d",
        "atomic_radius": 169,
        "electronegativity": 2.2,
        "melting_point": 1828,
        "category": "transition metal"
    },
    {
        "atomic_number": 47,
        "element_name": "Silver",
        "symbol": "Ag",
        "atomic_mass": 107.868,
        "period": 5,
        "group": 11,
        "block": "d",
        "atomic_radius": 165,
        "electronegativity": 1.93,
        "melting_point": 1234,
        "category": "transition metal"
    },
    {
        "atomic_number": 48,
        "element_name": "Cadmium",
        "symbol": "Cd",
        "atomic_mass": 112.414,
        "period": 5,
        "group": 12,
        "block": "d",
        "atomic_radius": 161,
        "electronegativity": 1.69,
        "melting_point": 594.22,
        "category": "transition metal"
    },
    {
        "atomic_number": 49,
        "element_name": "Indium",
        "symbol": "In",
        "atomic_mass": 114.818,
        "period": 5,
        "group": 13,
        "block": "p",
        "atomic_radius": 167,
        "electronegativity": 1.78,
        "melting_point": 429.75,
        "category": "post-transition metal"
    },
    {
        "atomic_number": 50,
        "element_name": "Tin",
        "symbol": "Sn",
        "atomic_mass": 118.71,
        "period": 5,
        "group": 14,
        "block": "p",
        "atomic_radius": 145,
        "electronegativity": 1.96,
        "melting_point": 505.08,
        "category": "post-transition metal"
    },
    {
        "atomic_number": 51,
        "element_name": "Antimony",
        "symbol": "Sb",
        "atomic_mass": 121.76,
        "period": 5,
        "group": 15,
        "block": "p",
        "atomic_radius": 133,
        "electronegativity": 2.05,
        "melting_point": 903.78,
        "category": "metalloid"
    },
    {
        "atomic_number": 52,
        "element_name": "Tellurium",
        "symbol": "Te",
        "atomic_mass": 127.6,
        "period": 5,
        "group": 16,
        "block": "p",
        "atomic_radius": 123,
        "electronegativity": 2.1,
        "melting_point": 722.66,
        "category": "metalloid"
    },
    {
        "atomic_number": 53,
        "element_name": "Iodine",
        "symbol": "I",
        "atomic_mass": 126.904,
        "period": 5,
        "group": 17,
        "block": "p",
        "atomic_radius": 115,
        "electronegativity": 2.66,
        "melting_point": 386.85,
        "category": "halogen"
    },
    {
        "atomic_number": 54,
        "element_name": "Xenon",
        "symbol": "Xe",
        "atomic_mass": 131.293,
        "period": 5,
        "group": 18,
        "block": "p",
        "atomic_radius": 108,
        "electronegativity": 2.6,
        "melting_point": 161.36,
        "category": "noble gas"
    },
    {
        "atomic_number": 55,
        "element_name": "Cesium",
        "symbol": "Cs",
        "atomic_mass": 132.905,
        "period": 6,
        "group": 1,
        "block": "s",
        "atomic_radius": 265,
        "electronegativity": 0.79,
        "melting_point": 301.59,
        "category": "alkali metal"
    },
    {
        "atomic_number": 56,
        "element_name": "Barium",
        "symbol": "Ba",
        "atomic_mass": 137.327,
        "period": 6,
        "group": 2,
        "block": "s",
        "atomic_radius": 222,
        "electronegativity": 0.89,
        "melting_point": 1000,
        "category": "alkaline earth metal"
    },
    {
        "atomic_number": 57,
        "element_name": "Lanthanum",
        "symbol": "La",
        "atomic_mass": 138.905,
        "period": 6,
        "group": 3,
        "block": "d",
        "atomic_radius": 187,
        "electronegativity": 1.1,
        "melting_point": 1193,
        "category": "lanthanide"
    },
    {
        "atomic_number": 58,
        "element_name": "Cerium",
        "symbol": "Ce",
        "atomic_mass": 140.116,
        "period": 6,
        "group": null,
        "block": "f",
        "atomic_radius": 182,
        "electronegativity": 1.12,
        "melting_point": 1068,
        "category": "lanthanide"
    },
    {
        "atomic_number": 59,
        "element_name": "Praseodymium",
        "symbol": "Pr",
        "atomic_mass": 140.908,
        "period": 6,
        "group": null,
        "block": "f",
        "atomic_radius": 182,
        "electronegativity": 1.13,
        "melting_point": 1208,
        "category": "lanthanide"
    },
    {
        "atomic_number": 60,
        "element_name": "Neodymium",
        "symbol": "Nd",
        "atomic_mass": 144.242,
        "period": 6,
        "group": null,
        "block": "f",
        "atomic_radius": 181,
        "electronegativity": 1.14,
        "melting_point": 1297,
        "category": "lanthanide"
    }           
]